 Entering Gaussian System, Link 0=g16
 Input=snap_11.com
 Output=snap_11.log
 Initial command:
 /sw/contrib/gaussian/g16/A03/g16/l1.exe "/scr/Gau-30576.inp" -scrdir="/scr/"
 Entering Link 1 = /sw/contrib/gaussian/g16/A03/g16/l1.exe PID=     30577.
  
 Copyright (c) 1988,1990,1992,1993,1995,1998,2003,2009,2016,
            Gaussian, Inc.  All Rights Reserved.
  
 This is part of the Gaussian(R) 16 program.  It is based on
 the Gaussian(R) 09 system (copyright 2009, Gaussian, Inc.),
 the Gaussian(R) 03 system (copyright 2003, Gaussian, Inc.),
 the Gaussian(R) 98 system (copyright 1998, Gaussian, Inc.),
 the Gaussian(R) 94 system (copyright 1995, Gaussian, Inc.),
 the Gaussian 92(TM) system (copyright 1992, Gaussian, Inc.),
 the Gaussian 90(TM) system (copyright 1990, Gaussian, Inc.),
 the Gaussian 88(TM) system (copyright 1988, Gaussian, Inc.),
 the Gaussian 86(TM) system (copyright 1986, Carnegie Mellon
 University), and the Gaussian 82(TM) system (copyright 1983,
 Carnegie Mellon University). Gaussian is a federally registered
 trademark of Gaussian, Inc.
  
 This software contains proprietary and confidential information,
 including trade secrets, belonging to Gaussian, Inc.
  
 This software is provided under written license and may be
 used, copied, transmitted, or stored only in accord with that
 written license.
  
 The following legend is applicable only to US Government
 contracts under FAR:
  
                    RESTRICTED RIGHTS LEGEND
  
 Use, reproduction and disclosure by the US Government is
 subject to restrictions as set forth in subparagraphs (a)
 and (c) of the Commercial Computer Software - Restricted
 Rights clause in FAR 52.227-19.
  
 Gaussian, Inc.
 340 Quinnipiac St., Bldg. 40, Wallingford CT 06492
  
  
 ---------------------------------------------------------------
 Warning -- This program may not be used in any manner that
 competes with the business of Gaussian, Inc. or will provide
 assistance to any competitor of Gaussian, Inc.  The licensee
 of this program is prohibited from giving any competitor of
 Gaussian, Inc. access to this program.  By using this program,
 the user acknowledges that Gaussian, Inc. is engaged in the
 business of creating and licensing software in the field of
 computational chemistry and represents and warrants to the
 licensee that it is not a competitor of Gaussian, Inc. and that
 it will not use this program in any manner prohibited above.
 ---------------------------------------------------------------
  

 Cite this work as:
 Gaussian 16, Revision A.03,
 M. J. Frisch, G. W. Trucks, H. B. Schlegel, G. E. Scuseria, 
 M. A. Robb, J. R. Cheeseman, G. Scalmani, V. Barone, 
 G. A. Petersson, H. Nakatsuji, X. Li, M. Caricato, A. V. Marenich, 
 J. Bloino, B. G. Janesko, R. Gomperts, B. Mennucci, H. P. Hratchian, 
 J. V. Ortiz, A. F. Izmaylov, J. L. Sonnenberg, D. Williams-Young, 
 F. Ding, F. Lipparini, F. Egidi, J. Goings, B. Peng, A. Petrone, 
 T. Henderson, D. Ranasinghe, V. G. Zakrzewski, J. Gao, N. Rega, 
 G. Zheng, W. Liang, M. Hada, M. Ehara, K. Toyota, R. Fukuda, 
 J. Hasegawa, M. Ishida, T. Nakajima, Y. Honda, O. Kitao, H. Nakai, 
 T. Vreven, K. Throssell, J. A. Montgomery, Jr., J. E. Peralta, 
 F. Ogliaro, M. J. Bearpark, J. J. Heyd, E. N. Brothers, K. N. Kudin, 
 V. N. Staroverov, T. A. Keith, R. Kobayashi, J. Normand, 
 K. Raghavachari, A. P. Rendell, J. C. Burant, S. S. Iyengar, 
 J. Tomasi, M. Cossi, J. M. Millam, M. Klene, C. Adamo, R. Cammi, 
 J. W. Ochterski, R. L. Martin, K. Morokuma, O. Farkas, 
 J. B. Foresman, and D. J. Fox, Gaussian, Inc., Wallingford CT, 2016.
 
 ******************************************
 Gaussian 16:  ES64L-G16RevA.03 25-Dec-2016
                27-Nov-2017 
 ******************************************
 %mem=64gb
 %nproc=28
 Will use up to   28 processors via shared memory.
 %Chk=snap_11.chk
 ----------------------------------------------------------------
 # opt b3lyp/6-31g(d,p) scf=(xqc, tight) pop=min cachesize=131072
 ----------------------------------------------------------------
 1/4=131072,18=20,19=15,26=3,38=1/1,3;
 2/4=131072,9=110,12=2,17=6,18=5,40=1/2;
 3/4=131072,5=1,6=6,7=101,11=2,25=1,30=1,71=1,74=-5/1,2,3;
 4/4=131072/1;
 5/4=131072,5=2,8=3,13=1,32=2,38=5/2,8;
 6/4=131072,7=2,8=2,9=2,10=2,28=1/1;
 7/4=131072/1,2,3,16;
 1/4=131072,18=20,19=15,26=3/3(2);
 2/4=131072,9=110/2;
 99/4=131072/99;
 2/4=131072,9=110/2;
 3/4=131072,5=1,6=6,7=101,11=2,25=1,30=1,71=1,74=-5/1,2,3;
 4/4=131072,5=5,16=3,69=1/1;
 5/4=131072,5=2,8=3,13=1,32=2,38=5/2,8;
 7/4=131072/1,2,3,16;
 1/4=131072,18=20,19=15,26=3/3(-5);
 2/4=131072,9=110/2;
 6/4=131072,7=2,8=2,9=2,10=2,19=2,28=1/1;
 99/4=131072,9=1/99;
 -------------------------------------
 Complex snap_11, LLSPGH with CstarAQK
 -------------------------------------
 Symbolic Z-matrix:
 Charge =  2 Multiplicity = 1
 O                     3.61447  -2.46312   3.74148 
 C                     3.58096  -1.09412   4.15917 
 H                     4.41014  -1.00508   4.89443 
 H                     2.6237   -0.88088   4.67251 
 C                     3.80504  -0.15289   2.96847 
 H                     3.20225   0.78329   3.0513 
 O                     5.19114   0.32365   3.0432 
 C                     5.89001   0.06774   1.83934 
 H                     6.53999   0.96148   1.64975 
 C                     3.65575  -0.80493   1.56867 
 H                     3.65257  -1.92204   1.61424 
 C                     4.85969  -0.29216   0.76734 
 H                     4.5632    0.60659   0.17349 
 H                     5.2179   -1.01358   0.00943 
 O                     2.45548  -0.27104   0.95663 
 N                     6.81506  -1.10265   2.12294 
 C                     8.21022  -1.11731   1.89357 
 C                     8.69009  -2.36902   2.37857 
 N                     7.59849  -3.07753   2.9027 
 C                     6.48297  -2.31485   2.75111 
 N                     8.96793  -0.14494   1.31421 
 C                     10.31596  -0.43558   1.22992 
 N                     10.87394  -1.64785   1.69094 
 C                     10.09292  -2.72018   2.30159 
 N                     11.12757   0.50641   0.66307 
 O                     10.66674  -3.71571   2.65024 
 H                     5.45479  -2.58253   3.07931 
 P                     1.22962  -1.36745   0.96824 
 O                    -0.07515  -0.48708   0.50494 
 C                    -1.30756  -0.71018   1.22897 
 H                    -1.19597  -0.4287    2.29575 
 H                    -1.98522   0.01937   0.73423 
 C                    -1.78811  -2.16076   1.06205 
 H                    -1.22896  -2.86135   1.73695 
 O                    -3.14891  -2.23377   1.56954 
 C                    -4.06395  -2.69374   0.56853 
 H                    -4.65401  -3.50791   1.06043 
 C                    -1.81734  -2.64325  -0.4124 
 H                    -1.48346  -1.85979  -1.13892 
 C                    -3.25712  -3.10916  -0.66022 
 H                    -3.66186  -2.70562  -1.61629 
 H                    -3.31326  -4.20695  -0.82875 
 O                    -0.85033  -3.66584  -0.61823 
 O                     1.09849  -2.144     2.22426 
 O                     1.60365  -2.22744  -0.35875 
 N                    -5.01211  -1.5296    0.31708 
 C                    -5.90571  -1.59177  -0.81085 
 C                    -6.03769   0.49068   1.1267 
 C                    -5.13444  -0.51919   1.27508 
 H                    -4.45878  -0.58951   2.14884 
 H                    -1.06064  -4.4982   -0.13366 
 H                     2.69798  -2.73245   3.41549 
 H                     0.92546  -2.91411  -0.68837 
 H                     11.88765  -1.82499   1.61251 
 O                    -10.41529   4.86536   0.05616 
 C                    -10.83077   4.65238  -1.30532 
 C                    -10.75697   3.16453  -1.6565 
 O                    -9.43167   2.82021  -2.12075 
 C                    -9.25212   2.7782   -3.55665 
 C                    -7.96691   1.97062  -3.7556 
 O                    -8.12326   0.60483  -3.32656 
 C                    -8.78047  -0.27638  -4.27217 
 C                    -8.91927  -1.60108  -3.5138 
 O                    -9.11314  -1.39717  -2.09853 
 C                    -10.32013  -0.66318  -1.73645 
 C                    -10.38346  -0.74876  -0.21323 
 O                    -10.07738   0.60508   0.21104 
 C                    -10.14704   0.84378   1.6419 
 C                    -10.25911   2.35932   1.76724 
 O                    -8.89167   2.8737    1.81038 
 C                    -8.81694   4.32021   1.71268 
 C                    -8.98326   4.80636   0.27308 
 H                    -11.879    5.0204   -1.26698 
 H                    -10.24916   5.28579  -1.99563 
 H                    -11.52876   2.86007  -2.3804 
 H                    -10.84785   2.53805  -0.73088 
 H                    -9.1445    3.81873  -3.91851 
 H                    -10.13117   2.31583  -4.03609 
 H                    -7.61339   2.01661  -4.80169 
 H                    -7.15673   2.32196  -3.082 
 H                    -9.75419   0.15323  -4.56251 
 H                    -8.14286  -0.37804  -5.17033 
 H                    -7.98148  -2.19993  -3.51302 
 H                    -9.74137  -2.21997  -3.91855 
 H                    -11.18573  -1.14151  -2.22484 
 H                    -10.20925   0.38607  -2.07992 
 H                    -11.38893  -1.02678   0.15149 
 H                    -9.62818  -1.4465    0.1942 
 H                    -11.03223   0.33777   2.06982 
 H                    -9.2278    0.44571   2.10728 
 H                    -10.75898   2.66686   2.70429 
 H                    -10.78502   2.80625   0.8893 
 H                    -7.80241   4.51815   2.10972 
 H                    -9.5692    4.78267   2.38127 
 H                    -8.5969    5.83701   0.14287 
 H                    -8.50374   4.14332  -0.46915 
 H                     7.66822  -4.00184   3.32326 
 H                     10.73048   1.38426   0.33052 
 H                     12.12862   0.39433   0.57615 
 N                    -6.83872  -0.52854  -0.92503 
 O                    -5.86915  -2.49194  -1.61739 
 C                    -6.90629   0.54094  -0.0233 
 H                    -6.13041   1.27824   1.88158 
 N                    -7.71072   1.57548  -0.30988 
 H                    -7.58081  -0.60345  -1.71086 
 H                    -7.99754   2.26818   0.42757 
 H                    -8.37884   1.54168  -1.11098 
 
 Add virtual bond connecting atoms H105       and O64        Dist= 3.34D+00.
 Add virtual bond connecting atoms H106       and O70        Dist= 3.32D+00.

 GradGradGradGradGradGradGradGradGradGradGradGradGradGradGradGradGradGrad
 Berny optimization.
 Initialization pass.
                           ----------------------------
                           !    Initial Parameters    !
                           ! (Angstroms and Degrees)  !
 --------------------------                            --------------------------
 ! Name  Definition              Value          Derivative Info.                !
 --------------------------------------------------------------------------------
 ! R1    R(1,2)                  1.4317         estimate D2E/DX2                !
 ! R2    R(1,52)                 1.0093         estimate D2E/DX2                !
 ! R3    R(2,3)                  1.1118         estimate D2E/DX2                !
 ! R4    R(2,4)                  1.107          estimate D2E/DX2                !
 ! R5    R(2,5)                  1.5342         estimate D2E/DX2                !
 ! R6    R(5,6)                  1.1165         estimate D2E/DX2                !
 ! R7    R(5,7)                  1.4676         estimate D2E/DX2                !
 ! R8    R(5,10)                 1.5514         estimate D2E/DX2                !
 ! R9    R(7,8)                  1.4153         estimate D2E/DX2                !
 ! R10   R(8,9)                  1.1212         estimate D2E/DX2                !
 ! R11   R(8,12)                 1.5298         estimate D2E/DX2                !
 ! R12   R(8,16)                 1.5185         estimate D2E/DX2                !
 ! R13   R(10,11)                1.118          estimate D2E/DX2                !
 ! R14   R(10,12)                1.5344         estimate D2E/DX2                !
 ! R15   R(10,15)                1.4492         estimate D2E/DX2                !
 ! R16   R(12,13)                1.1173         estimate D2E/DX2                !
 ! R17   R(12,14)                1.106          estimate D2E/DX2                !
 ! R18   R(15,28)                1.6447         estimate D2E/DX2                !
 ! R19   R(16,17)                1.414          estimate D2E/DX2                !
 ! R20   R(16,20)                1.4051         estimate D2E/DX2                !
 ! R21   R(17,18)                1.4256         estimate D2E/DX2                !
 ! R22   R(17,21)                1.3621         estimate D2E/DX2                !
 ! R23   R(18,19)                1.403          estimate D2E/DX2                !
 ! R24   R(18,24)                1.4482         estimate D2E/DX2                !
 ! R25   R(19,20)                1.3598         estimate D2E/DX2                !
 ! R26   R(19,97)                1.0179         estimate D2E/DX2                !
 ! R27   R(20,27)                1.112          estimate D2E/DX2                !
 ! R28   R(21,22)                1.3816         estimate D2E/DX2                !
 ! R29   R(22,23)                1.4119         estimate D2E/DX2                !
 ! R30   R(22,25)                1.3665         estimate D2E/DX2                !
 ! R31   R(23,24)                1.4604         estimate D2E/DX2                !
 ! R32   R(23,54)                1.0321         estimate D2E/DX2                !
 ! R33   R(24,26)                1.2008         estimate D2E/DX2                !
 ! R34   R(25,98)                1.0193         estimate D2E/DX2                !
 ! R35   R(25,99)                1.011          estimate D2E/DX2                !
 ! R36   R(28,29)                1.6408         estimate D2E/DX2                !
 ! R37   R(28,44)                1.4825         estimate D2E/DX2                !
 ! R38   R(28,45)                1.6249         estimate D2E/DX2                !
 ! R39   R(29,30)                1.4467         estimate D2E/DX2                !
 ! R40   R(30,31)                1.1089         estimate D2E/DX2                !
 ! R41   R(30,32)                1.1119         estimate D2E/DX2                !
 ! R42   R(30,33)                1.5372         estimate D2E/DX2                !
 ! R43   R(33,34)                1.122          estimate D2E/DX2                !
 ! R44   R(33,35)                1.4542         estimate D2E/DX2                !
 ! R45   R(33,38)                1.5517         estimate D2E/DX2                !
 ! R46   R(35,36)                1.4321         estimate D2E/DX2                !
 ! R47   R(36,37)                1.1194         estimate D2E/DX2                !
 ! R48   R(36,40)                1.5275         estimate D2E/DX2                !
 ! R49   R(36,46)                1.5223         estimate D2E/DX2                !
 ! R50   R(38,39)                1.1194         estimate D2E/DX2                !
 ! R51   R(38,40)                1.5334         estimate D2E/DX2                !
 ! R52   R(38,43)                1.4224         estimate D2E/DX2                !
 ! R53   R(40,41)                1.1139         estimate D2E/DX2                !
 ! R54   R(40,42)                1.1121         estimate D2E/DX2                !
 ! R55   R(43,51)                0.9858         estimate D2E/DX2                !
 ! R56   R(45,53)                1.0199         estimate D2E/DX2                !
 ! R57   R(46,47)                1.4404         estimate D2E/DX2                !
 ! R58   R(46,49)                1.3977         estimate D2E/DX2                !
 ! R59   R(47,100)               1.4192         estimate D2E/DX2                !
 ! R60   R(47,101)               1.2092         estimate D2E/DX2                !
 ! R61   R(48,49)                1.363          estimate D2E/DX2                !
 ! R62   R(48,102)               1.442          estimate D2E/DX2                !
 ! R63   R(48,103)               1.0948         estimate D2E/DX2                !
 ! R64   R(49,50)                1.1068         estimate D2E/DX2                !
 ! R65   R(55,56)                1.4393         estimate D2E/DX2                !
 ! R66   R(55,72)                1.4496         estimate D2E/DX2                !
 ! R67   R(56,57)                1.5305         estimate D2E/DX2                !
 ! R68   R(56,73)                1.1116         estimate D2E/DX2                !
 ! R69   R(56,74)                1.1027         estimate D2E/DX2                !
 ! R70   R(57,58)                1.4459         estimate D2E/DX2                !
 ! R71   R(57,75)                1.1011         estimate D2E/DX2                !
 ! R72   R(57,76)                1.1214         estimate D2E/DX2                !
 ! R73   R(58,59)                1.4477         estimate D2E/DX2                !
 ! R74   R(59,60)                1.5309         estimate D2E/DX2                !
 ! R75   R(59,77)                1.1069         estimate D2E/DX2                !
 ! R76   R(59,78)                1.1029         estimate D2E/DX2                !
 ! R77   R(60,61)                1.4401         estimate D2E/DX2                !
 ! R78   R(60,79)                1.1052         estimate D2E/DX2                !
 ! R79   R(60,80)                1.1107         estimate D2E/DX2                !
 ! R80   R(61,62)                1.45           estimate D2E/DX2                !
 ! R81   R(62,63)                1.5327         estimate D2E/DX2                !
 ! R82   R(62,81)                1.1032         estimate D2E/DX2                !
 ! R83   R(62,82)                1.1062         estimate D2E/DX2                !
 ! R84   R(63,64)                1.443          estimate D2E/DX2                !
 ! R85   R(63,83)                1.1127         estimate D2E/DX2                !
 ! R86   R(63,84)                1.1058         estimate D2E/DX2                !
 ! R87   R(64,65)                1.4583         estimate D2E/DX2                !
 ! R88   R(64,105)               1.7687         estimate D2E/DX2                !
 ! R89   R(65,66)                1.5269         estimate D2E/DX2                !
 ! R90   R(65,85)                1.103          estimate D2E/DX2                !
 ! R91   R(65,86)                1.1096         estimate D2E/DX2                !
 ! R92   R(66,67)                1.4514         estimate D2E/DX2                !
 ! R93   R(66,87)                1.1051         estimate D2E/DX2                !
 ! R94   R(66,88)                1.106          estimate D2E/DX2                !
 ! R95   R(67,68)                1.4523         estimate D2E/DX2                !
 ! R96   R(68,69)                1.5248         estimate D2E/DX2                !
 ! R97   R(68,89)                1.1058         estimate D2E/DX2                !
 ! R98   R(68,90)                1.1046         estimate D2E/DX2                !
 ! R99   R(69,70)                1.4616         estimate D2E/DX2                !
 ! R100  R(69,91)                1.1057         estimate D2E/DX2                !
 ! R101  R(69,92)                1.1167         estimate D2E/DX2                !
 ! R102  R(70,71)                1.4517         estimate D2E/DX2                !
 ! R103  R(70,106)               1.7545         estimate D2E/DX2                !
 ! R104  R(71,72)                1.5285         estimate D2E/DX2                !
 ! R105  R(71,93)                1.1073         estimate D2E/DX2                !
 ! R106  R(71,94)                1.1076         estimate D2E/DX2                !
 ! R107  R(72,95)                1.1084         estimate D2E/DX2                !
 ! R108  R(72,96)                1.1048         estimate D2E/DX2                !
 ! R109  R(100,102)              1.4005         estimate D2E/DX2                !
 ! R110  R(100,105)              1.0834         estimate D2E/DX2                !
 ! R111  R(102,104)              1.3415         estimate D2E/DX2                !
 ! R112  R(104,106)              1.0516         estimate D2E/DX2                !
 ! R113  R(104,107)              1.0437         estimate D2E/DX2                !
 ! A1    A(2,1,52)             109.1552         estimate D2E/DX2                !
 ! A2    A(1,2,3)              104.6001         estimate D2E/DX2                !
 ! A3    A(1,2,4)              109.8607         estimate D2E/DX2                !
 ! A4    A(1,2,5)              110.9027         estimate D2E/DX2                !
 ! A5    A(3,2,4)              108.8344         estimate D2E/DX2                !
 ! A6    A(3,2,5)              110.8051         estimate D2E/DX2                !
 ! A7    A(4,2,5)              111.594          estimate D2E/DX2                !
 ! A8    A(2,5,6)              112.2076         estimate D2E/DX2                !
 ! A9    A(2,5,7)              107.3145         estimate D2E/DX2                !
 ! A10   A(2,5,10)             115.3628         estimate D2E/DX2                !
 ! A11   A(6,5,7)              103.5244         estimate D2E/DX2                !
 ! A12   A(6,5,10)             111.5541         estimate D2E/DX2                !
 ! A13   A(7,5,10)             105.8603         estimate D2E/DX2                !
 ! A14   A(5,7,8)              111.3666         estimate D2E/DX2                !
 ! A15   A(7,8,9)              106.6152         estimate D2E/DX2                !
 ! A16   A(7,8,12)             107.819          estimate D2E/DX2                !
 ! A17   A(7,8,16)             106.3381         estimate D2E/DX2                !
 ! A18   A(9,8,12)             117.3524         estimate D2E/DX2                !
 ! A19   A(9,8,16)             107.0256         estimate D2E/DX2                !
 ! A20   A(12,8,16)            111.0896         estimate D2E/DX2                !
 ! A21   A(5,10,11)            112.5465         estimate D2E/DX2                !
 ! A22   A(5,10,12)            104.7879         estimate D2E/DX2                !
 ! A23   A(5,10,15)            107.8132         estimate D2E/DX2                !
 ! A24   A(11,10,12)           110.9409         estimate D2E/DX2                !
 ! A25   A(11,10,15)           112.5163         estimate D2E/DX2                !
 ! A26   A(12,10,15)           107.8286         estimate D2E/DX2                !
 ! A27   A(8,12,10)            103.9518         estimate D2E/DX2                !
 ! A28   A(8,12,13)            111.2191         estimate D2E/DX2                !
 ! A29   A(8,12,14)            114.5525         estimate D2E/DX2                !
 ! A30   A(10,12,13)           109.7659         estimate D2E/DX2                !
 ! A31   A(10,12,14)           113.205          estimate D2E/DX2                !
 ! A32   A(13,12,14)           104.2655         estimate D2E/DX2                !
 ! A33   A(10,15,28)           111.6378         estimate D2E/DX2                !
 ! A34   A(8,16,17)            125.3636         estimate D2E/DX2                !
 ! A35   A(8,16,20)            127.1886         estimate D2E/DX2                !
 ! A36   A(17,16,20)           107.2645         estimate D2E/DX2                !
 ! A37   A(16,17,18)           106.6216         estimate D2E/DX2                !
 ! A38   A(16,17,21)           127.6244         estimate D2E/DX2                !
 ! A39   A(18,17,21)           125.7517         estimate D2E/DX2                !
 ! A40   A(17,18,19)           107.9756         estimate D2E/DX2                !
 ! A41   A(17,18,24)           121.3926         estimate D2E/DX2                !
 ! A42   A(19,18,24)           130.6259         estimate D2E/DX2                !
 ! A43   A(18,19,20)           108.2643         estimate D2E/DX2                !
 ! A44   A(18,19,97)           124.0315         estimate D2E/DX2                !
 ! A45   A(20,19,97)           127.7032         estimate D2E/DX2                !
 ! A46   A(16,20,19)           109.8661         estimate D2E/DX2                !
 ! A47   A(16,20,27)           123.9284         estimate D2E/DX2                !
 ! A48   A(19,20,27)           126.2005         estimate D2E/DX2                !
 ! A49   A(17,21,22)           114.7428         estimate D2E/DX2                !
 ! A50   A(21,22,23)           123.1135         estimate D2E/DX2                !
 ! A51   A(21,22,25)           117.374          estimate D2E/DX2                !
 ! A52   A(23,22,25)           119.5114         estimate D2E/DX2                !
 ! A53   A(22,23,24)           123.7542         estimate D2E/DX2                !
 ! A54   A(22,23,54)           120.7122         estimate D2E/DX2                !
 ! A55   A(24,23,54)           115.5334         estimate D2E/DX2                !
 ! A56   A(18,24,23)           111.2375         estimate D2E/DX2                !
 ! A57   A(18,24,26)           130.4291         estimate D2E/DX2                !
 ! A58   A(23,24,26)           118.3333         estimate D2E/DX2                !
 ! A59   A(22,25,98)           119.8448         estimate D2E/DX2                !
 ! A60   A(22,25,99)           123.1817         estimate D2E/DX2                !
 ! A61   A(98,25,99)           116.9466         estimate D2E/DX2                !
 ! A62   A(15,28,29)           103.4752         estimate D2E/DX2                !
 ! A63   A(15,28,44)           114.9039         estimate D2E/DX2                !
 ! A64   A(15,28,45)           100.1067         estimate D2E/DX2                !
 ! A65   A(29,28,44)           116.7408         estimate D2E/DX2                !
 ! A66   A(29,28,45)           103.6755         estimate D2E/DX2                !
 ! A67   A(44,28,45)           115.787          estimate D2E/DX2                !
 ! A68   A(28,29,30)           116.9605         estimate D2E/DX2                !
 ! A69   A(29,30,31)           110.8908         estimate D2E/DX2                !
 ! A70   A(29,30,32)           101.2643         estimate D2E/DX2                !
 ! A71   A(29,30,33)           110.9465         estimate D2E/DX2                !
 ! A72   A(31,30,32)           108.835          estimate D2E/DX2                !
 ! A73   A(31,30,33)           112.052          estimate D2E/DX2                !
 ! A74   A(32,30,33)           112.3538         estimate D2E/DX2                !
 ! A75   A(30,33,34)           111.5989         estimate D2E/DX2                !
 ! A76   A(30,33,35)           107.579          estimate D2E/DX2                !
 ! A77   A(30,33,38)           113.7343         estimate D2E/DX2                !
 ! A78   A(34,33,35)           103.0077         estimate D2E/DX2                !
 ! A79   A(34,33,38)           112.7553         estimate D2E/DX2                !
 ! A80   A(35,33,38)           107.3603         estimate D2E/DX2                !
 ! A81   A(33,35,36)           111.7225         estimate D2E/DX2                !
 ! A82   A(35,36,37)           105.2639         estimate D2E/DX2                !
 ! A83   A(35,36,40)           108.1874         estimate D2E/DX2                !
 ! A84   A(35,36,46)           105.5334         estimate D2E/DX2                !
 ! A85   A(37,36,40)           115.7285         estimate D2E/DX2                !
 ! A86   A(37,36,46)           107.486          estimate D2E/DX2                !
 ! A87   A(40,36,46)           113.8334         estimate D2E/DX2                !
 ! A88   A(33,38,39)           113.171          estimate D2E/DX2                !
 ! A89   A(33,38,40)           105.4104         estimate D2E/DX2                !
 ! A90   A(33,38,43)           110.3807         estimate D2E/DX2                !
 ! A91   A(39,38,40)           112.8178         estimate D2E/DX2                !
 ! A92   A(39,38,43)           101.9152         estimate D2E/DX2                !
 ! A93   A(40,38,43)           113.3597         estimate D2E/DX2                !
 ! A94   A(36,40,38)           106.457          estimate D2E/DX2                !
 ! A95   A(36,40,41)           113.5773         estimate D2E/DX2                !
 ! A96   A(36,40,42)           111.3278         estimate D2E/DX2                !
 ! A97   A(38,40,41)           111.7039         estimate D2E/DX2                !
 ! A98   A(38,40,42)           111.8282         estimate D2E/DX2                !
 ! A99   A(41,40,42)           102.0759         estimate D2E/DX2                !
 ! A100  A(38,43,51)           113.007          estimate D2E/DX2                !
 ! A101  A(28,45,53)           117.8534         estimate D2E/DX2                !
 ! A102  A(36,46,47)           118.8652         estimate D2E/DX2                !
 ! A103  A(36,46,49)           119.6112         estimate D2E/DX2                !
 ! A104  A(47,46,49)           120.9059         estimate D2E/DX2                !
 ! A105  A(46,47,100)          116.0111         estimate D2E/DX2                !
 ! A106  A(46,47,101)          122.3916         estimate D2E/DX2                !
 ! A107  A(100,47,101)         121.5973         estimate D2E/DX2                !
 ! A108  A(49,48,102)          120.7845         estimate D2E/DX2                !
 ! A109  A(49,48,103)          120.9334         estimate D2E/DX2                !
 ! A110  A(102,48,103)         118.2789         estimate D2E/DX2                !
 ! A111  A(46,49,48)           121.2652         estimate D2E/DX2                !
 ! A112  A(46,49,50)           116.2147         estimate D2E/DX2                !
 ! A113  A(48,49,50)           122.5199         estimate D2E/DX2                !
 ! A114  A(56,55,72)           114.8789         estimate D2E/DX2                !
 ! A115  A(55,56,57)           110.3027         estimate D2E/DX2                !
 ! A116  A(55,56,73)           100.9873         estimate D2E/DX2                !
 ! A117  A(55,56,74)           110.7874         estimate D2E/DX2                !
 ! A118  A(57,56,73)           112.0387         estimate D2E/DX2                !
 ! A119  A(57,56,74)           112.9119         estimate D2E/DX2                !
 ! A120  A(73,56,74)           109.1944         estimate D2E/DX2                !
 ! A121  A(56,57,58)           110.4496         estimate D2E/DX2                !
 ! A122  A(56,57,75)           112.6965         estimate D2E/DX2                !
 ! A123  A(56,57,76)           110.4741         estimate D2E/DX2                !
 ! A124  A(58,57,75)           111.4414         estimate D2E/DX2                !
 ! A125  A(58,57,76)           101.9044         estimate D2E/DX2                !
 ! A126  A(75,57,76)           109.3529         estimate D2E/DX2                !
 ! A127  A(57,58,59)           116.0445         estimate D2E/DX2                !
 ! A128  A(58,59,60)           104.3792         estimate D2E/DX2                !
 ! A129  A(58,59,77)           108.0006         estimate D2E/DX2                !
 ! A130  A(58,59,78)           110.1502         estimate D2E/DX2                !
 ! A131  A(60,59,77)           111.8261         estimate D2E/DX2                !
 ! A132  A(60,59,78)           113.047          estimate D2E/DX2                !
 ! A133  A(77,59,78)           109.237          estimate D2E/DX2                !
 ! A134  A(59,60,61)           111.7429         estimate D2E/DX2                !
 ! A135  A(59,60,79)           111.6916         estimate D2E/DX2                !
 ! A136  A(59,60,80)           111.5124         estimate D2E/DX2                !
 ! A137  A(61,60,79)           110.8668         estimate D2E/DX2                !
 ! A138  A(61,60,80)           101.4508         estimate D2E/DX2                !
 ! A139  A(79,60,80)           109.1209         estimate D2E/DX2                !
 ! A140  A(60,61,62)           115.5484         estimate D2E/DX2                !
 ! A141  A(61,62,63)           104.0997         estimate D2E/DX2                !
 ! A142  A(61,62,81)           109.5737         estimate D2E/DX2                !
 ! A143  A(61,62,82)           108.9108         estimate D2E/DX2                !
 ! A144  A(63,62,81)           112.7603         estimate D2E/DX2                !
 ! A145  A(63,62,82)           111.9948         estimate D2E/DX2                !
 ! A146  A(81,62,82)           109.3216         estimate D2E/DX2                !
 ! A147  A(62,63,64)           112.0446         estimate D2E/DX2                !
 ! A148  A(62,63,83)           112.9035         estimate D2E/DX2                !
 ! A149  A(62,63,84)           111.7123         estimate D2E/DX2                !
 ! A150  A(64,63,83)           100.8717         estimate D2E/DX2                !
 ! A151  A(64,63,84)           109.7682         estimate D2E/DX2                !
 ! A152  A(83,63,84)           109.0041         estimate D2E/DX2                !
 ! A153  A(63,64,65)           115.2041         estimate D2E/DX2                !
 ! A154  A(63,64,105)           99.3222         estimate D2E/DX2                !
 ! A155  A(65,64,105)          115.8979         estimate D2E/DX2                !
 ! A156  A(64,65,66)           104.7023         estimate D2E/DX2                !
 ! A157  A(64,65,85)           108.7429         estimate D2E/DX2                !
 ! A158  A(64,65,86)           108.4442         estimate D2E/DX2                !
 ! A159  A(66,65,85)           112.6352         estimate D2E/DX2                !
 ! A160  A(66,65,86)           111.4648         estimate D2E/DX2                !
 ! A161  A(85,65,86)           110.5758         estimate D2E/DX2                !
 ! A162  A(65,66,67)           103.3315         estimate D2E/DX2                !
 ! A163  A(65,66,87)           112.3989         estimate D2E/DX2                !
 ! A164  A(65,66,88)           111.9941         estimate D2E/DX2                !
 ! A165  A(67,66,87)           109.2726         estimate D2E/DX2                !
 ! A166  A(67,66,88)           109.6797         estimate D2E/DX2                !
 ! A167  A(87,66,88)           109.9392         estimate D2E/DX2                !
 ! A168  A(66,67,68)           115.5434         estimate D2E/DX2                !
 ! A169  A(67,68,69)           104.3511         estimate D2E/DX2                !
 ! A170  A(67,68,89)           110.1491         estimate D2E/DX2                !
 ! A171  A(67,68,90)           108.4184         estimate D2E/DX2                !
 ! A172  A(69,68,89)           111.3567         estimate D2E/DX2                !
 ! A173  A(69,68,90)           112.6265         estimate D2E/DX2                !
 ! A174  A(89,68,90)           109.7704         estimate D2E/DX2                !
 ! A175  A(68,69,70)           106.4662         estimate D2E/DX2                !
 ! A176  A(68,69,91)           112.2928         estimate D2E/DX2                !
 ! A177  A(68,69,92)           111.5773         estimate D2E/DX2                !
 ! A178  A(70,69,91)           107.461          estimate D2E/DX2                !
 ! A179  A(70,69,92)           108.8416         estimate D2E/DX2                !
 ! A180  A(91,69,92)           110.0015         estimate D2E/DX2                !
 ! A181  A(69,70,71)           113.3805         estimate D2E/DX2                !
 ! A182  A(69,70,106)          109.3937         estimate D2E/DX2                !
 ! A183  A(71,70,106)          105.3434         estimate D2E/DX2                !
 ! A184  A(70,71,72)           112.0051         estimate D2E/DX2                !
 ! A185  A(70,71,93)           101.6046         estimate D2E/DX2                !
 ! A186  A(70,71,94)           109.904          estimate D2E/DX2                !
 ! A187  A(72,71,93)           112.3668         estimate D2E/DX2                !
 ! A188  A(72,71,94)           111.2119         estimate D2E/DX2                !
 ! A189  A(93,71,94)           109.3415         estimate D2E/DX2                !
 ! A190  A(55,72,71)           105.1513         estimate D2E/DX2                !
 ! A191  A(55,72,95)           106.7946         estimate D2E/DX2                !
 ! A192  A(55,72,96)           110.6519         estimate D2E/DX2                !
 ! A193  A(71,72,95)           111.6209         estimate D2E/DX2                !
 ! A194  A(71,72,96)           113.2442         estimate D2E/DX2                !
 ! A195  A(95,72,96)           109.1389         estimate D2E/DX2                !
 ! A196  A(47,100,102)         123.5061         estimate D2E/DX2                !
 ! A197  A(47,100,105)         117.1844         estimate D2E/DX2                !
 ! A198  A(102,100,105)        119.1273         estimate D2E/DX2                !
 ! A199  A(48,102,100)         117.2442         estimate D2E/DX2                !
 ! A200  A(48,102,104)         123.9487         estimate D2E/DX2                !
 ! A201  A(100,102,104)        118.7048         estimate D2E/DX2                !
 ! A202  A(102,104,106)        121.4483         estimate D2E/DX2                !
 ! A203  A(102,104,107)        121.5257         estimate D2E/DX2                !
 ! A204  A(106,104,107)        112.6432         estimate D2E/DX2                !
 ! A205  A(64,105,100)         141.5733         estimate D2E/DX2                !
 ! A206  A(70,106,104)         156.7805         estimate D2E/DX2                !
 ! D1    D(52,1,2,3)           155.1443         estimate D2E/DX2                !
 ! D2    D(52,1,2,4)            38.478          estimate D2E/DX2                !
 ! D3    D(52,1,2,5)           -85.3584         estimate D2E/DX2                !
 ! D4    D(1,2,5,6)            144.1657         estimate D2E/DX2                !
 ! D5    D(1,2,5,7)           -102.7643         estimate D2E/DX2                !
 ! D6    D(1,2,5,10)            14.9185         estimate D2E/DX2                !
 ! D7    D(3,2,5,6)           -100.1276         estimate D2E/DX2                !
 ! D8    D(3,2,5,7)             12.9424         estimate D2E/DX2                !
 ! D9    D(3,2,5,10)           130.6253         estimate D2E/DX2                !
 ! D10   D(4,2,5,6)             21.3264         estimate D2E/DX2                !
 ! D11   D(4,2,5,7)            134.3964         estimate D2E/DX2                !
 ! D12   D(4,2,5,10)          -107.9207         estimate D2E/DX2                !
 ! D13   D(2,5,7,8)            125.2311         estimate D2E/DX2                !
 ! D14   D(6,5,7,8)           -115.9411         estimate D2E/DX2                !
 ! D15   D(10,5,7,8)             1.52           estimate D2E/DX2                !
 ! D16   D(2,5,10,11)          -14.1409         estimate D2E/DX2                !
 ! D17   D(2,5,10,12)         -134.7938         estimate D2E/DX2                !
 ! D18   D(2,5,10,15)          110.534          estimate D2E/DX2                !
 ! D19   D(6,5,10,11)         -143.7075         estimate D2E/DX2                !
 ! D20   D(6,5,10,12)           95.6396         estimate D2E/DX2                !
 ! D21   D(6,5,10,15)          -19.0327         estimate D2E/DX2                !
 ! D22   D(7,5,10,11)          104.3537         estimate D2E/DX2                !
 ! D23   D(7,5,10,12)          -16.2992         estimate D2E/DX2                !
 ! D24   D(7,5,10,15)         -130.9715         estimate D2E/DX2                !
 ! D25   D(5,7,8,9)            141.0003         estimate D2E/DX2                !
 ! D26   D(5,7,8,12)            14.1621         estimate D2E/DX2                !
 ! D27   D(5,7,8,16)          -105.0529         estimate D2E/DX2                !
 ! D28   D(7,8,12,10)          -23.8597         estimate D2E/DX2                !
 ! D29   D(7,8,12,13)           94.1913         estimate D2E/DX2                !
 ! D30   D(7,8,12,14)         -147.9053         estimate D2E/DX2                !
 ! D31   D(9,8,12,10)         -144.1534         estimate D2E/DX2                !
 ! D32   D(9,8,12,13)          -26.1024         estimate D2E/DX2                !
 ! D33   D(9,8,12,14)           91.801          estimate D2E/DX2                !
 ! D34   D(16,8,12,10)          92.2859         estimate D2E/DX2                !
 ! D35   D(16,8,12,13)        -149.6631         estimate D2E/DX2                !
 ! D36   D(16,8,12,14)         -31.7597         estimate D2E/DX2                !
 ! D37   D(7,8,16,17)         -126.3886         estimate D2E/DX2                !
 ! D38   D(7,8,16,20)           48.0529         estimate D2E/DX2                !
 ! D39   D(9,8,16,17)          -12.723          estimate D2E/DX2                !
 ! D40   D(9,8,16,20)          161.7185         estimate D2E/DX2                !
 ! D41   D(12,8,16,17)         116.5572         estimate D2E/DX2                !
 ! D42   D(12,8,16,20)         -69.0013         estimate D2E/DX2                !
 ! D43   D(5,10,12,8)           23.9603         estimate D2E/DX2                !
 ! D44   D(5,10,12,13)         -95.0889         estimate D2E/DX2                !
 ! D45   D(5,10,12,14)         148.8745         estimate D2E/DX2                !
 ! D46   D(11,10,12,8)         -97.7508         estimate D2E/DX2                !
 ! D47   D(11,10,12,13)        143.2            estimate D2E/DX2                !
 ! D48   D(11,10,12,14)         27.1634         estimate D2E/DX2                !
 ! D49   D(15,10,12,8)         138.6219         estimate D2E/DX2                !
 ! D50   D(15,10,12,13)         19.5726         estimate D2E/DX2                !
 ! D51   D(15,10,12,14)        -96.4639         estimate D2E/DX2                !
 ! D52   D(5,10,15,28)        -105.247          estimate D2E/DX2                !
 ! D53   D(11,10,15,28)         19.4459         estimate D2E/DX2                !
 ! D54   D(12,10,15,28)        142.1117         estimate D2E/DX2                !
 ! D55   D(10,15,28,29)        169.7786         estimate D2E/DX2                !
 ! D56   D(10,15,28,44)         41.362          estimate D2E/DX2                !
 ! D57   D(10,15,28,45)        -83.3839         estimate D2E/DX2                !
 ! D58   D(8,16,17,18)         176.2763         estimate D2E/DX2                !
 ! D59   D(8,16,17,21)          -4.2674         estimate D2E/DX2                !
 ! D60   D(20,16,17,18)          0.9111         estimate D2E/DX2                !
 ! D61   D(20,16,17,21)       -179.6325         estimate D2E/DX2                !
 ! D62   D(8,16,20,19)        -176.0294         estimate D2E/DX2                !
 ! D63   D(8,16,20,27)           3.2032         estimate D2E/DX2                !
 ! D64   D(17,16,20,19)         -0.7741         estimate D2E/DX2                !
 ! D65   D(17,16,20,27)        178.4585         estimate D2E/DX2                !
 ! D66   D(16,17,18,19)         -0.7347         estimate D2E/DX2                !
 ! D67   D(16,17,18,24)       -179.9381         estimate D2E/DX2                !
 ! D68   D(21,17,18,19)        179.7959         estimate D2E/DX2                !
 ! D69   D(21,17,18,24)          0.5925         estimate D2E/DX2                !
 ! D70   D(16,17,21,22)        179.6283         estimate D2E/DX2                !
 ! D71   D(18,17,21,22)         -1.0137         estimate D2E/DX2                !
 ! D72   D(17,18,19,20)          0.2699         estimate D2E/DX2                !
 ! D73   D(17,18,19,97)       -179.3717         estimate D2E/DX2                !
 ! D74   D(24,18,19,20)        179.3739         estimate D2E/DX2                !
 ! D75   D(24,18,19,97)         -0.2677         estimate D2E/DX2                !
 ! D76   D(17,18,24,23)          0.1939         estimate D2E/DX2                !
 ! D77   D(17,18,24,26)       -179.7287         estimate D2E/DX2                !
 ! D78   D(19,18,24,23)       -178.8076         estimate D2E/DX2                !
 ! D79   D(19,18,24,26)          1.2698         estimate D2E/DX2                !
 ! D80   D(18,19,20,16)          0.3123         estimate D2E/DX2                !
 ! D81   D(18,19,20,27)       -178.8986         estimate D2E/DX2                !
 ! D82   D(97,19,20,16)        179.9369         estimate D2E/DX2                !
 ! D83   D(97,19,20,27)          0.726          estimate D2E/DX2                !
 ! D84   D(17,21,22,23)          0.6761         estimate D2E/DX2                !
 ! D85   D(17,21,22,25)       -179.7002         estimate D2E/DX2                !
 ! D86   D(21,22,23,24)          0.0704         estimate D2E/DX2                !
 ! D87   D(21,22,23,54)       -179.7819         estimate D2E/DX2                !
 ! D88   D(25,22,23,24)       -179.5457         estimate D2E/DX2                !
 ! D89   D(25,22,23,54)          0.602          estimate D2E/DX2                !
 ! D90   D(21,22,25,98)          0.5058         estimate D2E/DX2                !
 ! D91   D(21,22,25,99)        178.5642         estimate D2E/DX2                !
 ! D92   D(23,22,25,98)       -179.8563         estimate D2E/DX2                !
 ! D93   D(23,22,25,99)         -1.7979         estimate D2E/DX2                !
 ! D94   D(22,23,24,18)         -0.4974         estimate D2E/DX2                !
 ! D95   D(22,23,24,26)        179.4357         estimate D2E/DX2                !
 ! D96   D(54,23,24,18)        179.3618         estimate D2E/DX2                !
 ! D97   D(54,23,24,26)         -0.7051         estimate D2E/DX2                !
 ! D98   D(15,28,29,30)       -137.1678         estimate D2E/DX2                !
 ! D99   D(44,28,29,30)         -9.8954         estimate D2E/DX2                !
 ! D100  D(45,28,29,30)        118.7084         estimate D2E/DX2                !
 ! D101  D(15,28,45,53)       -171.22           estimate D2E/DX2                !
 ! D102  D(29,28,45,53)        -64.5431         estimate D2E/DX2                !
 ! D103  D(44,28,45,53)         64.644          estimate D2E/DX2                !
 ! D104  D(28,29,30,31)         63.0701         estimate D2E/DX2                !
 ! D105  D(28,29,30,32)        178.4342         estimate D2E/DX2                !
 ! D106  D(28,29,30,33)        -62.1281         estimate D2E/DX2                !
 ! D107  D(29,30,33,34)         79.4621         estimate D2E/DX2                !
 ! D108  D(29,30,33,35)       -168.2434         estimate D2E/DX2                !
 ! D109  D(29,30,33,38)        -49.4787         estimate D2E/DX2                !
 ! D110  D(31,30,33,34)        -45.0806         estimate D2E/DX2                !
 ! D111  D(31,30,33,35)         67.2139         estimate D2E/DX2                !
 ! D112  D(31,30,33,38)       -174.0214         estimate D2E/DX2                !
 ! D113  D(32,30,33,34)       -167.9831         estimate D2E/DX2                !
 ! D114  D(32,30,33,35)        -55.6885         estimate D2E/DX2                !
 ! D115  D(32,30,33,38)         63.0762         estimate D2E/DX2                !
 ! D116  D(30,33,35,36)        121.8213         estimate D2E/DX2                !
 ! D117  D(34,33,35,36)       -120.1772         estimate D2E/DX2                !
 ! D118  D(38,33,35,36)         -0.9582         estimate D2E/DX2                !
 ! D119  D(30,33,38,39)         -0.0438         estimate D2E/DX2                !
 ! D120  D(30,33,38,40)       -123.7914         estimate D2E/DX2                !
 ! D121  D(30,33,38,43)        113.446          estimate D2E/DX2                !
 ! D122  D(34,33,38,39)       -128.395          estimate D2E/DX2                !
 ! D123  D(34,33,38,40)        107.8574         estimate D2E/DX2                !
 ! D124  D(34,33,38,43)        -14.9052         estimate D2E/DX2                !
 ! D125  D(35,33,38,39)        118.846          estimate D2E/DX2                !
 ! D126  D(35,33,38,40)         -4.9016         estimate D2E/DX2                !
 ! D127  D(35,33,38,43)       -127.6642         estimate D2E/DX2                !
 ! D128  D(33,35,36,37)        130.8094         estimate D2E/DX2                !
 ! D129  D(33,35,36,40)          6.5252         estimate D2E/DX2                !
 ! D130  D(33,35,36,46)       -115.6675         estimate D2E/DX2                !
 ! D131  D(35,36,40,38)         -9.3952         estimate D2E/DX2                !
 ! D132  D(35,36,40,41)       -132.738          estimate D2E/DX2                !
 ! D133  D(35,36,40,42)        112.715          estimate D2E/DX2                !
 ! D134  D(37,36,40,38)       -127.165          estimate D2E/DX2                !
 ! D135  D(37,36,40,41)        109.4922         estimate D2E/DX2                !
 ! D136  D(37,36,40,42)         -5.0549         estimate D2E/DX2                !
 ! D137  D(46,36,40,38)        107.5599         estimate D2E/DX2                !
 ! D138  D(46,36,40,41)        -15.7829         estimate D2E/DX2                !
 ! D139  D(46,36,40,42)       -130.3299         estimate D2E/DX2                !
 ! D140  D(35,36,46,47)        169.0335         estimate D2E/DX2                !
 ! D141  D(35,36,46,49)        -19.8924         estimate D2E/DX2                !
 ! D142  D(37,36,46,47)        -79.0011         estimate D2E/DX2                !
 ! D143  D(37,36,46,49)         92.073          estimate D2E/DX2                !
 ! D144  D(40,36,46,47)         50.5475         estimate D2E/DX2                !
 ! D145  D(40,36,46,49)       -138.3784         estimate D2E/DX2                !
 ! D146  D(33,38,40,36)          8.5539         estimate D2E/DX2                !
 ! D147  D(33,38,40,41)        133.0585         estimate D2E/DX2                !
 ! D148  D(33,38,40,42)       -113.2389         estimate D2E/DX2                !
 ! D149  D(39,38,40,36)       -115.417          estimate D2E/DX2                !
 ! D150  D(39,38,40,41)          9.0876         estimate D2E/DX2                !
 ! D151  D(39,38,40,42)        122.7901         estimate D2E/DX2                !
 ! D152  D(43,38,40,36)        129.3876         estimate D2E/DX2                !
 ! D153  D(43,38,40,41)       -106.1078         estimate D2E/DX2                !
 ! D154  D(43,38,40,42)          7.5948         estimate D2E/DX2                !
 ! D155  D(33,38,43,51)         67.036          estimate D2E/DX2                !
 ! D156  D(39,38,43,51)       -172.4739         estimate D2E/DX2                !
 ! D157  D(40,38,43,51)        -50.9493         estimate D2E/DX2                !
 ! D158  D(36,46,47,100)       174.9403         estimate D2E/DX2                !
 ! D159  D(36,46,47,101)        -5.1128         estimate D2E/DX2                !
 ! D160  D(49,46,47,100)         3.9857         estimate D2E/DX2                !
 ! D161  D(49,46,47,101)      -176.0675         estimate D2E/DX2                !
 ! D162  D(36,46,49,48)       -175.5443         estimate D2E/DX2                !
 ! D163  D(36,46,49,50)          4.5749         estimate D2E/DX2                !
 ! D164  D(47,46,49,48)         -4.6564         estimate D2E/DX2                !
 ! D165  D(47,46,49,50)        175.4628         estimate D2E/DX2                !
 ! D166  D(46,47,100,102)        0.6889         estimate D2E/DX2                !
 ! D167  D(46,47,100,105)     -174.3536         estimate D2E/DX2                !
 ! D168  D(101,47,100,102)    -179.2584         estimate D2E/DX2                !
 ! D169  D(101,47,100,105)       5.6991         estimate D2E/DX2                !
 ! D170  D(102,48,49,46)         0.5308         estimate D2E/DX2                !
 ! D171  D(102,48,49,50)      -179.596          estimate D2E/DX2                !
 ! D172  D(103,48,49,46)       179.8687         estimate D2E/DX2                !
 ! D173  D(103,48,49,50)        -0.2581         estimate D2E/DX2                !
 ! D174  D(49,48,102,100)        3.956          estimate D2E/DX2                !
 ! D175  D(49,48,102,104)     -172.3104         estimate D2E/DX2                !
 ! D176  D(103,48,102,100)    -175.3991         estimate D2E/DX2                !
 ! D177  D(103,48,102,104)       8.3345         estimate D2E/DX2                !
 ! D178  D(72,55,56,57)         76.4847         estimate D2E/DX2                !
 ! D179  D(72,55,56,73)       -164.8699         estimate D2E/DX2                !
 ! D180  D(72,55,56,74)        -49.2795         estimate D2E/DX2                !
 ! D181  D(56,55,72,71)       -150.9184         estimate D2E/DX2                !
 ! D182  D(56,55,72,95)         90.3657         estimate D2E/DX2                !
 ! D183  D(56,55,72,96)        -28.3028         estimate D2E/DX2                !
 ! D184  D(55,56,57,58)        -86.9433         estimate D2E/DX2                !
 ! D185  D(55,56,57,75)        147.6879         estimate D2E/DX2                !
 ! D186  D(55,56,57,76)         25.0328         estimate D2E/DX2                !
 ! D187  D(73,56,57,58)        161.4026         estimate D2E/DX2                !
 ! D188  D(73,56,57,75)         36.0339         estimate D2E/DX2                !
 ! D189  D(73,56,57,76)        -86.6212         estimate D2E/DX2                !
 ! D190  D(74,56,57,58)         37.6114         estimate D2E/DX2                !
 ! D191  D(74,56,57,75)        -87.7574         estimate D2E/DX2                !
 ! D192  D(74,56,57,76)        149.5875         estimate D2E/DX2                !
 ! D193  D(56,57,58,59)        -97.3966         estimate D2E/DX2                !
 ! D194  D(75,57,58,59)         28.6797         estimate D2E/DX2                !
 ! D195  D(76,57,58,59)        145.2083         estimate D2E/DX2                !
 ! D196  D(57,58,59,60)       -162.0302         estimate D2E/DX2                !
 ! D197  D(57,58,59,77)         78.8347         estimate D2E/DX2                !
 ! D198  D(57,58,59,78)        -40.3911         estimate D2E/DX2                !
 ! D199  D(58,59,60,61)         65.4781         estimate D2E/DX2                !
 ! D200  D(58,59,60,79)       -169.6778         estimate D2E/DX2                !
 ! D201  D(58,59,60,80)        -47.2857         estimate D2E/DX2                !
 ! D202  D(77,59,60,61)       -178.0133         estimate D2E/DX2                !
 ! D203  D(77,59,60,79)        -53.1693         estimate D2E/DX2                !
 ! D204  D(77,59,60,80)         69.2229         estimate D2E/DX2                !
 ! D205  D(78,59,60,61)        -54.2273         estimate D2E/DX2                !
 ! D206  D(78,59,60,79)         70.6168         estimate D2E/DX2                !
 ! D207  D(78,59,60,80)       -166.9911         estimate D2E/DX2                !
 ! D208  D(59,60,61,62)         80.7347         estimate D2E/DX2                !
 ! D209  D(79,60,61,62)        -44.5669         estimate D2E/DX2                !
 ! D210  D(80,60,61,62)       -160.3451         estimate D2E/DX2                !
 ! D211  D(60,61,62,63)       -175.1133         estimate D2E/DX2                !
 ! D212  D(60,61,62,81)        -54.2715         estimate D2E/DX2                !
 ! D213  D(60,61,62,82)         65.2672         estimate D2E/DX2                !
 ! D214  D(61,62,63,64)         32.7553         estimate D2E/DX2                !
 ! D215  D(61,62,63,83)        -80.3225         estimate D2E/DX2                !
 ! D216  D(61,62,63,84)        156.3972         estimate D2E/DX2                !
 ! D217  D(81,62,63,64)        -85.9284         estimate D2E/DX2                !
 ! D218  D(81,62,63,83)        160.9938         estimate D2E/DX2                !
 ! D219  D(81,62,63,84)         37.7135         estimate D2E/DX2                !
 ! D220  D(82,62,63,64)        150.2618         estimate D2E/DX2                !
 ! D221  D(82,62,63,83)         37.1839         estimate D2E/DX2                !
 ! D222  D(82,62,63,84)        -86.0963         estimate D2E/DX2                !
 ! D223  D(62,63,64,65)         61.743          estimate D2E/DX2                !
 ! D224  D(62,63,64,105)       -62.7598         estimate D2E/DX2                !
 ! D225  D(83,63,64,65)       -177.9044         estimate D2E/DX2                !
 ! D226  D(83,63,64,105)        57.5928         estimate D2E/DX2                !
 ! D227  D(84,63,64,65)        -62.9829         estimate D2E/DX2                !
 ! D228  D(84,63,64,105)       172.5143         estimate D2E/DX2                !
 ! D229  D(63,64,65,66)        172.657          estimate D2E/DX2                !
 ! D230  D(63,64,65,85)         52.0462         estimate D2E/DX2                !
 ! D231  D(63,64,65,86)        -68.2446         estimate D2E/DX2                !
 ! D232  D(105,64,65,66)       -72.032          estimate D2E/DX2                !
 ! D233  D(105,64,65,85)       167.3572         estimate D2E/DX2                !
 ! D234  D(105,64,65,86)        47.0664         estimate D2E/DX2                !
 ! D235  D(63,64,105,100)     -144.9753         estimate D2E/DX2                !
 ! D236  D(65,64,105,100)       91.0089         estimate D2E/DX2                !
 ! D237  D(64,65,66,67)        109.1659         estimate D2E/DX2                !
 ! D238  D(64,65,66,87)       -133.1529         estimate D2E/DX2                !
 ! D239  D(64,65,66,88)         -8.8013         estimate D2E/DX2                !
 ! D240  D(85,65,66,67)       -132.8431         estimate D2E/DX2                !
 ! D241  D(85,65,66,87)        -15.1619         estimate D2E/DX2                !
 ! D242  D(85,65,66,88)        109.1897         estimate D2E/DX2                !
 ! D243  D(86,65,66,67)         -7.8758         estimate D2E/DX2                !
 ! D244  D(86,65,66,87)        109.8054         estimate D2E/DX2                !
 ! D245  D(86,65,66,88)       -125.8429         estimate D2E/DX2                !
 ! D246  D(65,66,67,68)        176.3744         estimate D2E/DX2                !
 ! D247  D(87,66,67,68)         56.5256         estimate D2E/DX2                !
 ! D248  D(88,66,67,68)        -64.054          estimate D2E/DX2                !
 ! D249  D(66,67,68,69)       -161.461          estimate D2E/DX2                !
 ! D250  D(66,67,68,89)        -41.8384         estimate D2E/DX2                !
 ! D251  D(66,67,68,90)         78.2903         estimate D2E/DX2                !
 ! D252  D(67,68,69,70)        -88.2603         estimate D2E/DX2                !
 ! D253  D(67,68,69,91)        154.3949         estimate D2E/DX2                !
 ! D254  D(67,68,69,92)         30.362          estimate D2E/DX2                !
 ! D255  D(89,68,69,70)        152.9354         estimate D2E/DX2                !
 ! D256  D(89,68,69,91)         35.5907         estimate D2E/DX2                !
 ! D257  D(89,68,69,92)        -88.4423         estimate D2E/DX2                !
 ! D258  D(90,68,69,70)         29.1244         estimate D2E/DX2                !
 ! D259  D(90,68,69,91)        -88.2204         estimate D2E/DX2                !
 ! D260  D(90,68,69,92)        147.7467         estimate D2E/DX2                !
 ! D261  D(68,69,70,71)        170.6422         estimate D2E/DX2                !
 ! D262  D(68,69,70,106)        53.3963         estimate D2E/DX2                !
 ! D263  D(91,69,70,71)        -68.8508         estimate D2E/DX2                !
 ! D264  D(91,69,70,106)       173.9033         estimate D2E/DX2                !
 ! D265  D(92,69,70,71)         50.2406         estimate D2E/DX2                !
 ! D266  D(92,69,70,106)       -67.0053         estimate D2E/DX2                !
 ! D267  D(69,70,71,72)        -78.7274         estimate D2E/DX2                !
 ! D268  D(69,70,71,93)        161.1409         estimate D2E/DX2                !
 ! D269  D(69,70,71,94)         45.4229         estimate D2E/DX2                !
 ! D270  D(106,70,71,72)        40.8605         estimate D2E/DX2                !
 ! D271  D(106,70,71,93)       -79.2712         estimate D2E/DX2                !
 ! D272  D(106,70,71,94)       165.0108         estimate D2E/DX2                !
 ! D273  D(69,70,106,104)      -35.5634         estimate D2E/DX2                !
 ! D274  D(71,70,106,104)     -157.7615         estimate D2E/DX2                !
 ! D275  D(70,71,72,55)         83.7028         estimate D2E/DX2                !
 ! D276  D(70,71,72,95)       -160.8724         estimate D2E/DX2                !
 ! D277  D(70,71,72,96)        -37.2261         estimate D2E/DX2                !
 ! D278  D(93,71,72,55)       -162.6621         estimate D2E/DX2                !
 ! D279  D(93,71,72,95)        -47.2373         estimate D2E/DX2                !
 ! D280  D(93,71,72,96)         76.409          estimate D2E/DX2                !
 ! D281  D(94,71,72,55)        -39.7143         estimate D2E/DX2                !
 ! D282  D(94,71,72,95)         75.7105         estimate D2E/DX2                !
 ! D283  D(94,71,72,96)       -160.6432         estimate D2E/DX2                !
 ! D284  D(47,100,102,48)       -4.5544         estimate D2E/DX2                !
 ! D285  D(47,100,102,104)     171.9148         estimate D2E/DX2                !
 ! D286  D(105,100,102,48)     170.3971         estimate D2E/DX2                !
 ! D287  D(105,100,102,104)    -13.1337         estimate D2E/DX2                !
 ! D288  D(47,100,105,64)       78.8511         estimate D2E/DX2                !
 ! D289  D(102,100,105,64)     -96.4174         estimate D2E/DX2                !
 ! D290  D(48,102,104,106)     -20.3891         estimate D2E/DX2                !
 ! D291  D(48,102,104,107)    -175.1531         estimate D2E/DX2                !
 ! D292  D(100,102,104,106)    163.3955         estimate D2E/DX2                !
 ! D293  D(100,102,104,107)      8.6315         estimate D2E/DX2                !
 ! D294  D(102,104,106,70)     -76.9264         estimate D2E/DX2                !
 ! D295  D(107,104,106,70)      79.8841         estimate D2E/DX2                !
 --------------------------------------------------------------------------------
 Trust Radius=3.00D-01 FncErr=1.00D-07 GrdErr=1.00D-06 EigMax=2.50D+02 EigMin=1.00D-04
 Number of steps in this run=    624 maximum allowed number of steps=    642.
 GradGradGradGradGradGradGradGradGradGradGradGradGradGradGradGradGradGrad

 Stoichiometry    C31H51N8O16P(2+)
 Framework group  C1[X(C31H51N8O16P)]
 Deg. of freedom   315
 Full point group                 C1      NOp   1
 Largest Abelian subgroup         C1      NOp   1
 Largest concise Abelian subgroup C1      NOp   1
                         Standard orientation:                         
 ---------------------------------------------------------------------
 Center     Atomic      Atomic             Coordinates (Angstroms)
 Number     Number       Type             X           Y           Z
 ---------------------------------------------------------------------
      1          8           0       -6.346187   -0.307253   -2.509301
      2          6           0       -6.153734    1.110917   -2.470351
      3          1           0       -7.070928    1.531139   -2.937515
      4          1           0       -5.278446    1.388769   -3.088420
      5          6           0       -6.003632    1.603464   -1.025097
      6          1           0       -5.274257    2.444490   -0.939480
      7          8           0       -7.280053    2.215310   -0.637364
      8          6           0       -7.791683    1.634083    0.547371
      9          1           0       -8.237149    2.469599    1.147913
     10          6           0       -5.725810    0.498649    0.028035
     11          1           0       -5.920574   -0.528957   -0.367089
     12          6           0       -6.666770    0.824813    1.195397
     13          1           0       -6.122967    1.429665    1.961388
     14          1           0       -7.004810   -0.072546    1.746456
     15          8           0       -4.364260    0.664499    0.495944
     16          7           0       -8.937276    0.733117    0.120951
     17          6           0      -10.253010    0.782844    0.636390
     18          6           0      -11.015722   -0.170233   -0.099945
     19          7           0      -10.168710   -0.762914   -1.048405
     20          6           0       -8.930674   -0.216649   -0.914520
     21          7           0      -10.721693    1.568858    1.645248
     22          6           0      -12.063911    1.405968    1.929326
     23          7           0      -12.891502    0.489442    1.244826
     24          6           0      -12.422648   -0.381528    0.170416
     25          7           0      -12.592223    2.173409    2.928975
     26          8           0      -13.209180   -1.132695   -0.338516
     27          1           0       -8.036097   -0.458616   -1.529099
     28         15           0       -3.363675   -0.480071   -0.131577
     29          8           0       -1.867781    0.049698    0.285275
     30          6           0       -0.836493   -0.035485   -0.725682
     31          1           0       -1.082730    0.605138   -1.596704
     32          1           0        0.030996    0.406589   -0.188785
     33          6           0       -0.587909   -1.496069   -1.135420
     34          1           0       -1.366919   -1.861303   -1.855634
     35          8           0        0.631142   -1.528602   -1.927571
     36          6           0        1.614848   -2.395161   -1.351143
     37          1           0        1.963065   -3.046438   -2.192333
     38          6           0       -0.384715   -2.455994    0.066621
     39          1           0       -0.448803   -1.940102    1.058013
     40          6           0        0.975732   -3.122855   -0.169889
     41          1           0        1.603461   -3.115794    0.750238
     42          1           0        0.872926   -4.211368   -0.373043
     43          8           0       -1.460617   -3.382829    0.147770
     44          8           0       -3.587316   -0.786952   -1.564619
     45          8           0       -3.641478   -1.700677    0.904450
     46          7           0        2.776196   -1.491342   -0.961475
     47          6           0        3.828854   -2.027934   -0.137704
     48          6           0        3.973324    0.568371   -1.298071
     49          6           0        2.899724   -0.231403   -1.553890
     50          1           0        2.080208    0.071966   -2.233066
     51          1           0       -1.482553   -4.014895   -0.608457
     52          1           0       -5.446263   -0.764091   -2.495997
     53          1           0       -3.042993   -2.524109    0.842132
     54          1           0      -13.891172    0.400440    1.485408
     55          8           0        9.149442    3.838616    0.102142
     56          6           0        9.753405    3.129733    1.199559
     57          6           0        9.490072    1.627568    1.070653
     58          8           0        8.226983    1.281719    1.683417
     59          6           0        8.295841    0.767542    3.034969
     60          6           0        6.946658    0.076239    3.247924
     61          8           0        6.791388   -1.067412    2.386615
     62          6           0        7.443768   -2.281928    2.836041
     63          6           0        7.221076   -3.272299    1.687650
     64          8           0        7.197222   -2.615526    0.403038
     65          6           0        8.429612   -1.928921    0.033623
     66          6           0        8.211119   -1.492014   -1.413064
     67          8           0        8.070483   -0.051131   -1.309906
     68          6           0        7.929351    0.656142   -2.570478
     69          6           0        8.273847    2.102683   -2.232872
     70          8           0        7.027468    2.737112   -1.808180
     71          6           0        7.217904    4.061620   -1.245230
     72          6           0        7.712655    4.004014    0.199888
     73          1           0       10.825988    3.379649    1.048566
     74          1           0        9.417219    3.543233    2.164968
     75          1           0       10.313009    1.015989    1.472067
     76          1           0        9.310469    1.351392   -0.001246
     77          1           0        8.431382    1.625643    3.720909
     78          1           0        9.153378    0.081576    3.137271
     79          1           0        6.793833   -0.204138    4.305950
     80          1           0        6.103222    0.718231    2.916201
     81          1           0        8.511808   -2.079831    3.024264
     82          1           0        6.964518   -2.620377    3.773780
     83          1           0        6.209555   -3.735531    1.705333
     84          1           0        7.983757   -4.072930    1.684242
     85          1           0        9.272942   -2.631485    0.142120
     86          1           0        8.560270   -1.056023    0.706065
     87          1           0        9.075549   -1.728778   -2.059591
     88          1           0        7.288964   -1.926482   -1.842196
     89          1           0        8.627345    0.240511   -3.320656
     90          1           0        6.889014    0.538070   -2.922319
     91          1           0        8.647717    2.660746   -3.111110
     92          1           0        9.012866    2.164739   -1.397941
     93          1           0        6.198366    4.486224   -1.324944
     94          1           0        7.909677    4.646368   -1.882642
     95          1           0        7.535805    4.960882    0.730548
     96          1           0        7.264151    3.178906    0.781708
     97          1           0      -10.466734   -1.474266   -1.712666
     98          1           0      -11.999911    2.838262    3.424991
     99          1           0      -13.567070    2.140949    3.195106
    100          7           0        4.934438   -1.169624    0.096811
    101          8           0        3.780875   -3.141665    0.330755
    102          6           0        5.024690    0.131709   -0.412939
    103          1           0        4.065632    1.553498   -1.766782
    104          7           0        6.030718    0.917113    0.000042
    105          1           0        5.778370   -1.585151    0.634353
    106          1           0        6.298190    1.787915   -0.525408
    107          1           0        6.812552    0.542268    0.580987
 ---------------------------------------------------------------------
 Rotational constants (GHZ):           0.1104202           0.0110174           0.0107510
 Standard basis: 6-31G(d,p) (6D, 7F)
 There are  1099 symmetry adapted cartesian basis functions of A   symmetry.
 There are  1099 symmetry adapted basis functions of A   symmetry.
  1099 basis functions,  1949 primitive gaussians,  1099 cartesian basis functions
   217 alpha electrons      217 beta electrons
       nuclear repulsion energy      8330.2630375412 Hartrees.
 NAtoms=  107 NActive=  107 NUniq=  107 SFac= 1.00D+00 NAtFMM=   60 NAOKFM=T Big=T
 Integral buffers will be    131072 words long.
 Raffenetti 2 integral format.
 Two-electron integral symmetry is turned on.
 One-electron integrals computed using PRISM.
 NBasis=  1099 RedAO= T EigKep=  7.68D-04  NBF=  1099
 NBsUse=  1099 1.00D-06 EigRej= -1.00D+00 NBFU=  1099
 ExpMin= 9.98D-02 ExpMax= 1.94D+04 ExpMxC= 2.91D+03 IAcc=3 IRadAn=         5 AccDes= 0.00D+00
 Harris functional with IExCor=  402 and IRadAn=       5 diagonalized for initial guess.
 HarFok:  IExCor=  402 AccDes= 0.00D+00 IRadAn=         5 IDoV= 1 UseB2=F ITyADJ=14
 ICtDFT=  3500011 ScaDFX=  1.000000  1.000000  1.000000  1.000000
 FoFCou: FMM=F IPFlag=           0 FMFlag=      100000 FMFlg1=        2001
         NFxFlg=           0 DoJE=T BraDBF=F KetDBF=T FulRan=T
         wScrn=  0.000000 ICntrl=       500 IOpCl=  0 I1Cent=   200000004 NGrid=           0
         NMat0=    1 NMatS0=      1 NMatT0=    0 NMatD0=    1 NMtDS0=    0 NMtDT0=    0
 Petite list used in FoFCou.
 Requested convergence on RMS density matrix=1.00D-08 within  32 cycles.
 Requested convergence on MAX density matrix=1.00D-06.
 Requested convergence on             energy=1.00D-06.
 No special actions if energy rises.
 Integral accuracy reduced to 1.0D-05 until final iterations.
 Initial convergence to 1.0D-05 achieved.  Increase integral accuracy.
 SCF Done:  E(RB3LYP) =  -3194.56555973     A.U. after   14 cycles
            NFock= 14  Conv=0.77D-08     -V/T= 2.0093
 QCSCF skips out because SCF is already converged.
 Hyperfine terms turned off by default for NAtoms > 100.

 **********************************************************************

            Population analysis using the SCF density.

 **********************************************************************

 Orbital symmetries:
       Occupied  (A) (A) (A) (A) (A) (A) (A) (A) (A) (A) (A) (A)
                 (A) (A) (A) (A) (A) (A) (A) (A) (A) (A) (A) (A)
                 (A) (A) (A) (A) (A) (A) (A) (A) (A) (A) (A) (A)
                 (A) (A) (A) (A) (A) (A) (A) (A) (A) (A) (A) (A)
                 (A) (A) (A) (A) (A) (A) (A) (A) (A) (A) (A) (A)
                 (A) (A) (A) (A) (A) (A) (A) (A) (A) (A) (A) (A)
                 (A) (A) (A) (A) (A) (A) (A) (A) (A) (A) (A) (A)
                 (A) (A) (A) (A) (A) (A) (A) (A) (A) (A) (A) (A)
                 (A) (A) (A) (A) (A) (A) (A) (A) (A) (A) (A) (A)
                 (A) (A) (A) (A) (A) (A) (A) (A) (A) (A) (A) (A)
                 (A) (A) (A) (A) (A) (A) (A) (A) (A) (A) (A) (A)
                 (A) (A) (A) (A) (A) (A) (A) (A) (A) (A) (A) (A)
                 (A) (A) (A) (A) (A) (A) (A) (A) (A) (A) (A) (A)
                 (A) (A) (A) (A) (A) (A) (A) (A) (A) (A) (A) (A)
                 (A) (A) (A) (A) (A) (A) (A) (A) (A) (A) (A) (A)
                 (A) (A) (A) (A) (A) (A) (A) (A) (A) (A) (A) (A)
                 (A) (A) (A) (A) (A) (A) (A) (A) (A) (A) (A) (A)
                 (A) (A) (A) (A) (A) (A) (A) (A) (A) (A) (A) (A)
                 (A)
       Virtual   (A) (A) (A) (A) (A) (A) (A) (A) (A) (A) (A) (A)
                 (A) (A) (A) (A) (A) (A) (A) (A) (A) (A) (A) (A)
                 (A) (A) (A) (A) (A) (A) (A) (A) (A) (A) (A) (A)
                 (A) (A) (A) (A) (A) (A) (A) (A) (A) (A) (A) (A)
                 (A) (A) (A) (A) (A) (A) (A) (A) (A) (A) (A) (A)
                 (A) (A) (A) (A) (A) (A) (A) (A) (A) (A) (A) (A)
                 (A) (A) (A) (A) (A) (A) (A) (A) (A) (A) (A) (A)
                 (A) (A) (A) (A) (A) (A) (A) (A) (A) (A) (A) (A)
                 (A) (A) (A) (A) (A) (A) (A) (A) (A) (A) (A) (A)
                 (A) (A) (A) (A) (A) (A) (A) (A) (A) (A) (A) (A)
                 (A) (A) (A) (A) (A) (A) (A) (A) (A) (A) (A) (A)
                 (A) (A) (A) (A) (A) (A) (A) (A) (A) (A) (A) (A)
                 (A) (A) (A) (A) (A) (A) (A) (A) (A) (A) (A) (A)
                 (A) (A) (A) (A) (A) (A) (A) (A) (A) (A) (A) (A)
                 (A) (A) (A) (A) (A) (A) (A) (A) (A) (A) (A) (A)
                 (A) (A) (A) (A) (A) (A) (A) (A) (A) (A) (A) (A)
                 (A) (A) (A) (A) (A) (A) (A) (A) (A) (A) (A) (A)
                 (A) (A) (A) (A) (A) (A) (A) (A) (A) (A) (A) (A)
                 (A) (A) (A) (A) (A) (A) (A) (A) (A) (A) (A) (A)
                 (A) (A) (A) (A) (A) (A) (A) (A) (A) (A) (A) (A)
                 (A) (A) (A) (A) (A) (A) (A) (A) (A) (A) (A) (A)
                 (A) (A) (A) (A) (A) (A) (A) (A) (A) (A) (A) (A)
                 (A) (A) (A) (A) (A) (A) (A) (A) (A) (A) (A) (A)
                 (A) (A) (A) (A) (A) (A) (A) (A) (A) (A) (A) (A)
                 (A) (A) (A) (A) (A) (A) (A) (A) (A) (A) (A) (A)
                 (A) (A) (A) (A) (A) (A) (A) (A) (A) (A) (A) (A)
                 (A) (A) (A) (A) (A) (A) (A) (A) (A) (A) (A) (A)
                 (A) (A) (A) (A) (A) (A) (A) (A) (A) (A) (A) (A)
                 (A) (A) (A) (A) (A) (A) (A) (A) (A) (A) (A) (A)
                 (A) (A) (A) (A) (A) (A) (A) (A) (A) (A) (A) (A)
                 (A) (A) (A) (A) (A) (A) (A) (A) (A) (A) (A) (A)
                 (A) (A) (A) (A) (A) (A) (A) (A) (A) (A) (A) (A)
                 (A) (A) (A) (A) (A) (A) (A) (A) (A) (A) (A) (A)
                 (A) (A) (A) (A) (A) (A) (A) (A) (A) (A) (A) (A)
                 (A) (A) (A) (A) (A) (A) (A) (A) (A) (A) (A) (A)
                 (A) (A) (A) (A) (A) (A) (A) (A) (A) (A) (A) (A)
                 (A) (A) (A) (A) (A) (A) (A) (A) (A) (A) (A) (A)
                 (A) (A) (A) (A) (A) (A) (A) (A) (A) (A) (A) (A)
                 (A) (A) (A) (A) (A) (A) (A) (A) (A) (A) (A) (A)
                 (A) (A) (A) (A) (A) (A) (A) (A) (A) (A) (A) (A)
                 (A) (A) (A) (A) (A) (A) (A) (A) (A) (A) (A) (A)
                 (A) (A) (A) (A) (A) (A) (A) (A) (A) (A) (A) (A)
                 (A) (A) (A) (A) (A) (A) (A) (A) (A) (A) (A) (A)
                 (A) (A) (A) (A) (A) (A) (A) (A) (A) (A) (A) (A)
                 (A) (A) (A) (A) (A) (A) (A) (A) (A) (A) (A) (A)
                 (A) (A) (A) (A) (A) (A) (A) (A) (A) (A) (A) (A)
                 (A) (A) (A) (A) (A) (A) (A) (A) (A) (A) (A) (A)
                 (A) (A) (A) (A) (A) (A) (A) (A) (A) (A) (A) (A)
                 (A) (A) (A) (A) (A) (A) (A) (A) (A) (A) (A) (A)
                 (A) (A) (A) (A) (A) (A) (A) (A) (A) (A) (A) (A)
                 (A) (A) (A) (A) (A) (A) (A) (A) (A) (A) (A) (A)
                 (A) (A) (A) (A) (A) (A) (A) (A) (A) (A) (A) (A)
                 (A) (A) (A) (A) (A) (A) (A) (A) (A) (A) (A) (A)
                 (A) (A) (A) (A) (A) (A) (A) (A) (A) (A) (A) (A)
                 (A) (A) (A) (A) (A) (A) (A) (A) (A) (A) (A) (A)
                 (A) (A) (A) (A) (A) (A) (A) (A) (A) (A) (A) (A)
                 (A) (A) (A) (A) (A) (A) (A) (A) (A) (A) (A) (A)
                 (A) (A) (A) (A) (A) (A) (A) (A) (A) (A) (A) (A)
                 (A) (A) (A) (A) (A) (A) (A) (A) (A) (A) (A) (A)
                 (A) (A) (A) (A) (A) (A) (A) (A) (A) (A) (A) (A)
                 (A) (A) (A) (A) (A) (A) (A) (A) (A) (A) (A) (A)
                 (A) (A) (A) (A) (A) (A) (A) (A) (A) (A) (A) (A)
                 (A) (A) (A) (A) (A) (A) (A) (A) (A) (A) (A) (A)
                 (A) (A) (A) (A) (A) (A) (A) (A) (A) (A) (A) (A)
                 (A) (A) (A) (A) (A) (A) (A) (A) (A) (A) (A) (A)
                 (A) (A) (A) (A) (A) (A) (A) (A) (A) (A) (A) (A)
                 (A) (A) (A) (A) (A) (A) (A) (A) (A) (A) (A) (A)
                 (A) (A) (A) (A) (A) (A) (A) (A) (A) (A) (A) (A)
                 (A) (A) (A) (A) (A) (A) (A) (A) (A) (A) (A) (A)
                 (A) (A) (A) (A) (A) (A) (A) (A) (A) (A) (A) (A)
                 (A) (A) (A) (A) (A) (A) (A) (A) (A) (A) (A) (A)
                 (A) (A) (A) (A) (A) (A) (A) (A) (A) (A) (A) (A)
                 (A) (A) (A) (A) (A) (A) (A) (A) (A) (A) (A) (A)
                 (A) (A) (A) (A) (A) (A)
 The electronic state is 1-A.
 Alpha  occ. eigenvalues --  -77.40328 -19.34203 -19.33962 -19.33042 -19.32695
 Alpha  occ. eigenvalues --  -19.32027 -19.31976 -19.30863 -19.30752 -19.30688
 Alpha  occ. eigenvalues --  -19.30545 -19.30178 -19.29450 -19.29174 -19.28557
 Alpha  occ. eigenvalues --  -19.27836 -19.27770 -14.60962 -14.59471 -14.56529
 Alpha  occ. eigenvalues --  -14.55807 -14.54763 -14.53835 -14.51845 -14.50175
 Alpha  occ. eigenvalues --  -10.49983 -10.49919 -10.47377 -10.47225 -10.47124
 Alpha  occ. eigenvalues --  -10.46321 -10.45850 -10.45604 -10.42565 -10.41995
 Alpha  occ. eigenvalues --  -10.41430 -10.41313 -10.41166 -10.40811 -10.39902
 Alpha  occ. eigenvalues --  -10.38840 -10.38809 -10.38642 -10.38531 -10.38148
 Alpha  occ. eigenvalues --  -10.38019 -10.37996 -10.37918 -10.37489 -10.37365
 Alpha  occ. eigenvalues --  -10.37305 -10.36957 -10.36687 -10.36639 -10.36333
 Alpha  occ. eigenvalues --  -10.35624  -6.84706  -5.01121  -5.01067  -5.00935
 Alpha  occ. eigenvalues --   -1.24258  -1.23246  -1.23120  -1.21730  -1.21433
 Alpha  occ. eigenvalues --   -1.20316  -1.19291  -1.19240  -1.19101  -1.17833
 Alpha  occ. eigenvalues --   -1.17732  -1.16419  -1.16255  -1.16196  -1.15836
 Alpha  occ. eigenvalues --   -1.15741  -1.14642  -1.14122  -1.12479  -1.10747
 Alpha  occ. eigenvalues --   -1.10735  -1.06665  -1.05204  -1.04909  -0.96026
 Alpha  occ. eigenvalues --   -0.95332  -0.94356  -0.93977  -0.93249  -0.92992
 Alpha  occ. eigenvalues --   -0.92437  -0.91414  -0.90549  -0.86811  -0.86245
 Alpha  occ. eigenvalues --   -0.86165  -0.85604  -0.84439  -0.84016  -0.82984
[...]
   D279      -0.92635   0.00002  -0.00859   0.00266  -0.00178  -0.92814
   D280       1.13139   0.00004  -0.00841   0.00047  -0.00189   1.12950
   D281      -0.96134   0.00016  -0.00991   0.00382  -0.00109  -0.96243
   D282       1.14255  -0.00001  -0.00944   0.00313  -0.00202   1.14052
   D283      -3.08290   0.00002  -0.00926   0.00095  -0.00213  -3.08503
   D284       0.02786   0.00004   0.00918  -0.00081   0.00111   0.02896
   D285      -3.13214   0.00028   0.00261   0.00931  -0.00002  -3.13215
   D286      -3.10275  -0.00041   0.00705  -0.01622   0.00500  -3.09774
   D287       0.02044  -0.00016   0.00049  -0.00610   0.00388   0.02432
   D288       2.03287   0.00076  -0.01442  -0.00197  -0.00134   2.03153
   D289      -1.11866   0.00116  -0.01252   0.01196  -0.00488  -1.12353
   D290      -0.08346  -0.00012   0.00260   0.00158  -0.00080  -0.08426
   D291      -3.00047   0.00007   0.00159   0.00795   0.00022  -3.00024
   D292       3.07798  -0.00040   0.00968  -0.00942   0.00041   3.07839
   D293       0.16097  -0.00021   0.00867  -0.00305   0.00144   0.16241
   D294      -0.44235  -0.00020   0.00142  -0.06041  -0.00174  -0.44408
   D295       2.48303  -0.00028   0.00355  -0.06580  -0.00262   2.48040
         Item               Value     Threshold  Converged?
 Maximum Force            0.001970     0.000450     NO 
 RMS     Force            0.000363     0.000300     NO 
 Maximum Displacement     0.007777     0.001800     NO 
 RMS     Displacement     0.000755     0.001200     YES
 Predicted change in Energy=-6.167106D-05
 GradGradGradGradGradGradGradGradGradGradGradGradGradGradGradGradGradGrad

 Stoichiometry    C31H51N8O16P(2+)
 Framework group  C1[X(C31H51N8O16P)]
 Deg. of freedom   315
 Full point group                 C1      NOp   1
 Largest Abelian subgroup         C1      NOp   1
 Largest concise Abelian subgroup C1      NOp   1
                         Standard orientation:                         
 ---------------------------------------------------------------------
 Center     Atomic      Atomic             Coordinates (Angstroms)
 Number     Number       Type             X           Y           Z
 ---------------------------------------------------------------------
      1          8           0       -6.224670   -0.103833   -2.562558
      2          6           0       -5.875579    1.271516   -2.464404
      3          1           0       -6.295140    1.793515   -3.330516
      4          1           0       -4.787603    1.398031   -2.487980
      5          6           0       -6.424280    1.926059   -1.195012
      6          1           0       -5.935575    2.895404   -1.028290
      7          8           0       -7.850625    2.156942   -1.364606
      8          6           0       -8.557479    1.837647   -0.202401
      9          1           0       -9.285774    2.614179    0.044811
     10          6           0       -6.340849    1.074263    0.081337
     11          1           0       -6.491999    0.024157   -0.186037
     12          6           0       -7.524093    1.582944    0.903241
     13          1           0       -7.266769    2.534004    1.381123
     14          1           0       -7.868532    0.888999    1.672287
     15          8           0       -5.086486    1.224102    0.761147
     16          7           0       -9.392624    0.618965   -0.500194
     17          6           0      -10.606817    0.302741    0.101906
     18          6           0      -11.064442   -0.844047   -0.523827
     19          7           0      -10.127737   -1.186003   -1.482783
     20          6           0       -9.132097   -0.297983   -1.457173
     21          7           0      -11.200749    0.997881    1.084251
     22          6           0      -12.366966    0.480297    1.457462
     23          7           0      -12.900651   -0.660265    0.895677
     24          6           0      -12.317486   -1.441676   -0.146631
     25          7           0      -13.063729    1.085428    2.435851
     26          8           0      -12.854562   -2.436012   -0.590192
     27          1           0       -8.237363   -0.311256   -2.077725
     28         15           0       -3.984784    0.062728    0.562415
     29          8           0       -2.598101    0.839006    0.804874
     30          6           0       -1.505279    0.780248   -0.127983
     31          1           0       -1.836471    1.051959   -1.133546
     32          1           0       -0.789638    1.525580    0.225791
     33          6           0       -0.838576   -0.600133   -0.134069
     34          1           0       -1.432729   -1.295436   -0.744879
     35          8           0        0.465400   -0.435155   -0.710006
     36          6           0        1.314771   -1.471142   -0.261166
     37          1           0        1.425675   -2.245999   -1.026174
     38          6           0       -0.590376   -1.233868    1.252069
     39          1           0       -0.453689   -0.455624    2.007053
     40          6           0        0.700670   -2.048032    1.036382
     41          1           0        1.385696   -1.982712    1.882470
     42          1           0        0.470705   -3.108735    0.895135
     43          8           0       -1.689987   -2.012645    1.729464
     44          8           0       -4.076274   -0.641771   -0.750295
     45          8           0       -4.159907   -0.804571    1.881272
     46          7           0        2.676484   -0.897702   -0.075889
     47          6           0        3.690819   -1.849443    0.097976
     48          6           0        4.212468    0.932973   -0.037419
     49          6           0        2.950116    0.440108   -0.149222
     50          1           0        2.090263    1.073720   -0.319864
     51          1           0       -1.762208   -2.822279    1.202536
     52          1           0       -5.522933   -0.594464   -2.091328
     53          1           0       -3.337613   -1.326106    2.051155
     54          1           0      -13.792138   -1.020439    1.220384
     55          8           0        9.884048    2.612591    1.398091
     56          6           0       10.713799    1.528586    1.806908
     57          6           0       10.493279    0.283759    0.948580
     58          8           0        9.273600   -0.413096    1.253295
     59          6           0        9.437054   -1.587925    2.032808
     60          6           0        8.117166   -2.354507    2.031629
     61          8           0        7.532531   -2.474502    0.729963
     62          6           0        8.325142   -3.134187   -0.267016
     63          6           0        7.556933   -3.039261   -1.577861
     64          8           0        7.314645   -1.682576   -1.941631
     65          6           0        8.228788   -1.150297   -2.896526
     66          6           0        7.853109    0.292651   -3.196771
     67          8           0        8.179935    1.124612   -2.090520
     68          6           0        7.847603    2.488451   -2.322269
     69          6           0        8.224575    3.321123   -1.116413
     70          8           0        7.337622    3.021537   -0.020196
     71          6           0        7.723977    3.620968    1.230212
     72          6           0        8.632983    2.727008    2.061321
     73          1           0       11.748027    1.866891    1.670856
     74          1           0       10.575981    1.302161    2.873876
     75          1           0       11.350564   -0.395685    1.056354
     76          1           0       10.422344    0.588340   -0.100014
     77          1           0        9.703729   -1.362815    3.078413
     78          1           0       10.247561   -2.206256    1.620698
     79          1           0        8.270574   -3.344956    2.483287
     80          1           0        7.370169   -1.819108    2.624857
     81          1           0        9.298992   -2.640662   -0.360944
     82          1           0        8.486973   -4.186168    0.009080
     83          1           0        6.579845   -3.521338   -1.462027
     84          1           0        8.100012   -3.579629   -2.364970
     85          1           0        8.170118   -1.729063   -3.831897
     86          1           0        9.263097   -1.185278   -2.536269
     87          1           0        8.400430    0.619857   -4.094595
     88          1           0        6.776112    0.350804   -3.419456
     89          1           0        8.392427    2.880153   -3.195328
     90          1           0        6.769034    2.593705   -2.531639
     91          1           0        8.123409    4.385201   -1.374643
     92          1           0        9.259017    3.123283   -0.823361
     93          1           0        6.797716    3.809408    1.783650
     94          1           0        8.210965    4.585867    1.044640
     95          1           0        8.759557    3.182420    3.058258
     96          1           0        8.168178    1.741504    2.196990
     97          1           0      -10.193788   -1.977913   -2.112105
     98          1           0      -12.689894    1.939552    2.821938
     99          1           0      -13.979832    0.784290    2.726753
    100          7           0        4.963332   -1.314527    0.214258
    101          8           0        3.465140   -3.043014    0.146670
    102          6           0        5.291058    0.010912    0.142046
    103          1           0        4.416339    1.992289   -0.110415
    104          7           0        6.547796    0.362772    0.261120
    105          1           0        5.735903   -1.979102    0.383823
    106          1           0        6.840266    1.347305    0.156949
    107          1           0        7.288501   -0.339748    0.264117
 ---------------------------------------------------------------------
 Rotational constants (GHZ):           0.1274206           0.0101689           0.0100060
 Standard basis: 6-31G(d,p) (6D, 7F)
 There are  1099 symmetry adapted cartesian basis functions of A   symmetry.
 There are  1099 symmetry adapted basis functions of A   symmetry.
  1099 basis functions,  1949 primitive gaussians,  1099 cartesian basis functions
   217 alpha electrons      217 beta electrons
       nuclear repulsion energy      8220.1906510037 Hartrees.
 NAtoms=  107 NActive=  107 NUniq=  107 SFac= 1.00D+00 NAtFMM=   60 NAOKFM=T Big=T
 Integral buffers will be    131072 words long.
 Raffenetti 2 integral format.
 Two-electron integral symmetry is turned on.
 One-electron integrals computed using PRISM.
 NBasis=  1099 RedAO= T EigKep=  6.59D-04  NBF=  1099
 NBsUse=  1099 1.00D-06 EigRej= -1.00D+00 NBFU=  1099
 Initial guess from the checkpoint file:  "snap_11.chk"
 B after Tr=    -0.000000   -0.000000    0.000000
         Rot=    1.000000    0.000057   -0.000001    0.000001 Ang=   0.01 deg.
 Requested convergence on RMS density matrix=1.00D-08 within  32 cycles.
 Requested convergence on MAX density matrix=1.00D-06.
 Requested convergence on             energy=1.00D-06.
 No special actions if energy rises.
 SCF Done:  E(RB3LYP) =  -3194.67304598     A.U. after    8 cycles
            NFock=  8  Conv=0.44D-08     -V/T= 2.0086
 QCSCF skips out because SCF is already converged.
 Calling FoFJK, ICntrl=      2127 FMM=T ISym2X=0 I1Cent= 0 IOpClX= 0 NMat=1 NMatS=1 NMatT=0.
 ***** Axes restored to original set *****
 -------------------------------------------------------------------
 Center     Atomic                   Forces (Hartrees/Bohr)
 Number     Number              X              Y              Z
 -------------------------------------------------------------------
      1        8          -0.000410515    0.000206148   -0.000236020
      2        6          -0.000045252    0.000446633    0.000154455
      3        1          -0.000127150   -0.000157844   -0.000676999
      4        1           0.000105053   -0.000037591    0.000069337
      5        6           0.000548998   -0.000229615    0.000243402
      6        1          -0.000125388   -0.000420646   -0.000324626
      7        8          -0.001270969    0.000121040   -0.000401572
      8        6           0.000895892   -0.000649265   -0.001104138
      9        1          -0.000373046   -0.000250165   -0.000301960
     10        6           0.001010785   -0.000936451    0.000481289
     11        1          -0.000114848    0.000905977    0.000381869
     12        6          -0.000057122    0.000337020   -0.000175219
     13        1          -0.000043939   -0.000578932   -0.000056844
     14        1          -0.000005660   -0.000000191    0.000359269
     15        8          -0.000513140   -0.000082643    0.000030099
     16        7          -0.000659565    0.000002345   -0.000025583
     17        6           0.000676528   -0.000555606   -0.000168923
     18        6          -0.000092919    0.000709800    0.000366372
     19        7          -0.000038935    0.000692369   -0.000625982
     20        6           0.000264863    0.000080167    0.000837433
     21        7          -0.000331936   -0.000788834   -0.000156287
     22        6           0.000354148    0.000008578    0.000152044
     23        7          -0.000368795    0.000173478   -0.000068714
     24        6           0.000698249   -0.000264502    0.000192471
     25        7          -0.000695176   -0.000386941    0.000097030
     26        8          -0.000363096    0.001031485    0.000148922
     27        1           0.000361450    0.000321366    0.000035056
     28       15           0.000429407   -0.000331307   -0.000238314
     29        8          -0.000147581    0.000384844    0.000005701
     30        6          -0.000711415   -0.000643904    0.000405862
     31        1           0.000106142    0.000161780   -0.000191265
     32        1           0.000014635   -0.000014092   -0.000006457
     33        6           0.000305865   -0.000150999   -0.000122339
     34        1          -0.000125850    0.000121625    0.000062881
     35        8           0.000561576    0.000596416    0.000019176
     36        6          -0.000650370    0.000138726   -0.000473469
     37        1           0.000286411    0.000144320    0.000134490
     38        6           0.000664027   -0.000112917   -0.000283802
     39        1          -0.000171170   -0.000122420    0.000051265
     40        6          -0.000307298   -0.000327037   -0.000060944
     41        1           0.000088715   -0.000073790    0.000112583
     42        1          -0.000040800    0.000291353    0.000270916
     43        8          -0.000237205    0.000294589    0.000184538
     44        8           0.000102638    0.000671531   -0.000448138
     45        8          -0.000791148   -0.000233434   -0.000585973
     46        7           0.000116397   -0.000068782    0.000557763
     47        6           0.000181063   -0.000708468   -0.000101892
     48        6          -0.000204071   -0.000207097    0.000365320
     49        6          -0.000122627   -0.000075886   -0.000274253
     50        1           0.000076432   -0.000076680   -0.000161908
     51        1          -0.000024710   -0.000042636    0.000105424
     52        1           0.000496881   -0.000007919    0.001082877
     53        1           0.000662731   -0.000121922    0.001035596
     54        1           0.000006112    0.000012481    0.000012599
     55        8          -0.000043929    0.000132528   -0.000754416
     56        6           0.000399808   -0.000606002    0.000767782
     57        6           0.000085183    0.001334912   -0.000015651
     58        8          -0.000949554    0.000319211   -0.000741456
     59        6           0.000239077    0.000697626   -0.000706959
     60        6          -0.000203494   -0.000177759   -0.000139015
     61        8           0.000211235    0.000655626   -0.000794723
     62        6           0.000727035   -0.000195384    0.001032397
     63        6          -0.000168137    0.000303419    0.000389722
     64        8          -0.000467329   -0.001658283   -0.001477345
     65        6           0.002639830    0.000521603    0.004616603
     66        6          -0.000729704   -0.000439008   -0.002109099
     67        8          -0.000069532   -0.000064363    0.001184591
     68        6           0.001089983   -0.000197177   -0.000596841
     69        6          -0.000135344    0.000054715    0.000500239
     70        8          -0.000771877    0.001495452   -0.000347139
     71        6           0.000176769   -0.000148659   -0.000050840
     72        6          -0.000489929   -0.000105500   -0.000268112
     73        1           0.000474558   -0.000440664   -0.000025352
     74        1          -0.000060433   -0.000206409    0.000168334
     75        1           0.000360849    0.000085637    0.000244134
     76        1           0.000039765    0.000004331    0.000233182
     77        1          -0.000113674   -0.000753650    0.000581521
     78        1           0.000050304    0.000087046    0.000180726
     79        1           0.000043748    0.000053262    0.000389375
     80        1          -0.000093067   -0.000187687   -0.000191776
     81        1           0.000466655   -0.000257787    0.000230875
     82        1           0.000196561    0.000041592    0.000346654
     83        1           0.000530610   -0.000112478    0.000040257
     84        1          -0.000011236    0.000479626   -0.000065384
     85        1          -0.000409245    0.000956006   -0.000057430
     86        1          -0.001402844    0.000879019   -0.001788046
     87        1          -0.000051275   -0.000132030   -0.000138746
     88        1          -0.000217982   -0.000269647   -0.000115005
     89        1          -0.000249009   -0.000308986   -0.000162362
     90        1          -0.000844154    0.000203681   -0.000256521
     91        1          -0.000028623   -0.000252458   -0.000636764
     92        1           0.000449292   -0.000133618    0.000206692
     93        1          -0.000202176    0.000070355   -0.000184099
     94        1           0.000153323   -0.000411836   -0.000055768
     95        1           0.000003419   -0.000473581    0.000130903
     96        1          -0.000073261    0.000370437    0.000416492
     97        1           0.000009250    0.000521061   -0.000056951
     98        1           0.000056935   -0.000516496   -0.000129254
     99        1           0.000001290   -0.000022136   -0.000019480
    100        7          -0.005369023    0.002293860   -0.003537986
    101        8           0.000500252    0.000156495   -0.000034522
    102        6           0.000700380   -0.000124940   -0.000648998
    103        1           0.000025080   -0.000054630   -0.000019672
    104        7           0.000712066    0.000244851   -0.000446126
    105        1           0.002772504   -0.001576984    0.002267495
    106        1          -0.000007059   -0.001756329    0.001316055
    107        1           0.000202826    0.000426570    0.000643386
 -------------------------------------------------------------------
 Cartesian Forces:  Max     0.005369023 RMS     0.000717361

 GradGradGradGradGradGradGradGradGradGradGradGradGradGradGradGradGradGrad
 Berny optimization.
 Using GEDIIS/GDIIS optimizer.
 Bend failed for angle    70 -   106 -   104
 Tors failed for dihedral    69 -    70 -   106 -   104
 Tors failed for dihedral    71 -    70 -   106 -   104
 Tors failed for dihedral   102 -   104 -   106 -    70
 Tors failed for dihedral   107 -   104 -   106 -    70
 FormBX had a problem.
 Error termination via Lnk1e in /sw/contrib/gaussian/g16/A03/g16/l103.exe at Mon Nov 27 22:13:55 2017.
 Job cpu time:       2 days 11 hours 39 minutes 21.6 seconds.
 Elapsed time:       0 days  2 hours  8 minutes 47.3 seconds.
 File lengths (MBytes):  RWF=    745 Int=      0 D2E=      0 Chk=     92 Scr=      1
